<?xml version="1.0"?>
<VTKFile type="UnstructuredGrid"  version="0.1"  >
<UnstructuredGrid>
<Piece  NumberOfPoints="1728" NumberOfCells="7986">
<Points>
<DataArray  type="Float64"  NumberOfComponents="3"  format="ascii">-1 -1 -1  -0.8181818181818181 -1 -1  -0.6363636363636364 -1 -1  -0.4545454545454546 -1 -1  -0.2727272727272727 -1 -1  -0.09090909090909094 -1 -1  0.09090909090909083 -1 -1  0.2727272727272727 -1 -1  0.4545454545454546 -1 -1  0.6363636363636365 -1 -1  0.8181818181818181 -1 -1  1 -1 -1  -1 -0.8181818181818181 -1  -0.8181818181818181 -0.8181818181818181 -1  -0.6363636363636364 -0.8181818181818181 -1  -0.4545454545454546 -0.8181818181818181 -1  -0.2727272727272727 -0.8181818181818181 -1  -0.09090909090909094 -0.8181818181818181 -1  0.09090909090909083 -0.8181818181818181 -1  0.2727272727272727 -0.8181818181818181 -1  0.4545454545454546 -0.8181818181818181 -1  0.6363636363636365 -0.8181818181818181 -1  0.8181818181818181 -0.8181818181818181 -1  1 -0.8181818181818181 -1  -1 -0.6363636363636364 -1  -0.8181818181818181 -0.6363636363636364 -1  -0.6363636363636364 -0.6363636363636364 -1  -0.4545454545454546 -0.6363636363636364 -1  -0.2727272727272727 -0.6363636363636364 -1  -0.09090909090909094 -0.6363636363636364 -1  0.09090909090909083 -0.6363636363636364 -1  0.2727272727272727 -0.6363636363636364 -1  0.4545454545454546 -0.6363636363636364 -1  0.6363636363636365 -0.6363636363636364 -1  0.8181818181818181 -0.6363636363636364 -1  1 -0.6363636363636364 -1  -1 -0.4545454545454546 -1  -0.8181818181818181 -0.4545454545454546 -1  -0.6363636363636364 -0.4545454545454546 -1  -0.4545454545454546 -0.4545454545454546 -1  -0.2727272727272727 -0.4545454545454546 -1  -0.09090909090909094 -0.4545454545454546 -1  0.09090909090909083 -0.4545454545454546 -1  0.2727272727272727 -0.4545454545454546 -1  0.4545454545454546 -0.4545454545454546 -1  0.6363636363636365 -0.4545454545454546 -1  0.8181818181818181 -0.4545454545454546 -1  1 -0.4545454545454546 -1  -1 -0.2727272727272727 -1  -0.8181818181818181 -0.2727272727272727 -1  -0.6363636363636364 -0.2727272727272727 -1  -0.4545454545454546 -0.2727272727272727 -1  -0.2727272727272727 -0.2727272727272727 -1  -0.09090909090909094 -0.2727272727272727 -1  0.09090909090909083 -0.2727272727272727 -1  0.2727272727272727 -0.2727272727272727 -1  0.4545454545454546 -0.2727272727272727 -1  0.6363636363636365 -0.2727272727272727 -1  0.8181818181818181 -0.2727272727272727 -1  1 -0.2727272727272727 -1  -1 -0.09090909090909094 -1  -0.8181818181818181 -0.09090909090909094 -1  -0.6363636363636364 -0.09090909090909094 -1  -0.4545454545454546 -0.09090909090909094 -1  -0.2727272727272727 -0.09090909090909094 -1  -0.09090909090909094 -0.09090909090909094 -1  0.09090909090909083 -0.09090909090909094 -1  0.2727272727272727 -0.09090909090909094 -1  0.4545454545454546 -0.09090909090909094 -1  0.6363636363636365 -0.09090909090909094 -1  0.8181818181818181 -0.09090909090909094 -1  1 -0.09090909090909094 -1  -1 0.09090909090909083 -1  -0.8181818181818181 0.09090909090909083 -1  -0.6363636363636364 0.09090909090909083 -1  -0.4545454545454546 0.09090909090909083 -1  -0.2727272727272727 0.09090909090909083 -1  -0.09090909090909094 0.09090909090909083 -1  0.09090909090909083 0.09090909090909083 -1  0.2727272727272727 0.09090909090909083 -1  0.4545454545454546 0.09090909090909083 -1  0.6363636363636365 0.09090909090909083 -1  0.8181818181818181 0.09090909090909083 -1  1 0.09090909090909083 -1  -1 0.2727272727272727 -1  -0.8181818181818181 0.2727272727272727 -1  -0.6363636363636364 0.2727272727272727 -1  -0.4545454545454546 0.2727272727272727 -1  -0.2727272727272727 0.2727272727272727 -1  -0.09090909090909094 0.2727272727272727 -1  0.09090909090909083 0.2727272727272727 -1  0.2727272727272727 0.2727272727272727 -1  0.4545454545454546 0.2727272727272727 -1  0.6363636363636365 0.2727272727272727 -1  0.8181818181818181 0.2727272727272727 -1  1 0.2727272727272727 -1  -1 0.4545454545454546 -1  -0.8181818181818181 0.4545454545454546 -1  -0.6363636363636364 0.4545454545454546 -1  -0.4545454545454546 0.4545454545454546 -1  -0.2727272727272727 0.4545454545454546 -1  -0.09090909090909094 0.4545454545454546 -1  0.09090909090909083 0.4545454545454546 -1  0.2727272727272727 0.4545454545454546 -1  0.4545454545454546 0.4545454545454546 -1  0.6363636363636365 0.4545454545454546 -1  0.8181818181818181 0.4545454545454546 -1  1 0.4545454545454546 -1  -1 0.6363636363636365 -1  -0.8181818181818181 0.6363636363636365 -1  -0.6363636363636364 0.6363636363636365 -1  -0.4545454545454546 0.6363636363636365 -1  -0.2727272727272727 0.6363636363636365 -1  -0.09090909090909094 0.6363636363636365 -1  0.09090909090909083 0.6363636363636365 -1  0.2727272727272727 0.6363636363636365 -1  0.4545454545454546 0.6363636363636365 -1  0.6363636363636365 0.6363636363636365 -1  0.8181818181818181 0.6363636363636365 -1  1 0.6363636363636365 -1  -1 0.8181818181818181 -1  -0.8181818181818181 0.8181818181818181 -1  -0.6363636363636364 0.8181818181818181 -1  -0.4545454545454546 0.8181818181818181 -1  -0.2727272727272727 0.8181818181818181 -1  -0.09090909090909094 0.8181818181818181 -1  0.09090909090909083 0.8181818181818181 -1  0.2727272727272727 0.8181818181818181 -1  0.4545454545454546 0.8181818181818181 -1  0.6363636363636365 0.8181818181818181 -1  0.8181818181818181 0.8181818181818181 -1  1 0.8181818181818181 -1  -1 1 -1  -0.8181818181818181 1 -1  -0.6363636363636364 1 -1  -0.4545454545454546 1 -1  -0.2727272727272727 1 -1  -0.09090909090909094 1 -1  0.09090909090909083 1 -1  0.2727272727272727 1 -1  0.4545454545454546 1 -1  0.6363636363636365 1 -1  0.8181818181818181 1 -1  1 1 -1  -1 -1 -0.8181818181818181  -0.8181818181818181 -1 -0.8181818181818181  -0.6363636363636364 -1 -0.8181818181818181  -0.4545454545454546 -1 -0.8181818181818181  -0.2727272727272727 -1 -0.8181818181818181  -0.09090909090909094 -1 -0.8181818181818181  0.09090909090909083 -1 -0.8181818181818181  0.2727272727272727 -1 -0.8181818181818181  0.4545454545454546 -1 -0.8181818181818181  0.6363636363636365 -1 -0.8181818181818181  0.8181818181818181 -1 -0.8181818181818181  1 -1 -0.8181818181818181  -1 -0.8181818181818181 -0.8181818181818181  -0.8181818181818181 -0.8181818181818181 -0.8181818181818181  -0.6363636363636364 -0.8181818181818181 -0.8181818181818181  -0.4545454545454546 -0.8181818181818181 -0.8181818181818181  -0.2727272727272727 -0.8181818181818181 -0.8181818181818181  -0.09090909090909094 -0.8181818181818181 -0.8181818181818181  0.09090909090909083 -0.8181818181818181 -0.8181818181818181  0.2727272727272727 -0.8181818181818181 -0.8181818181818181  0.4545454545454546 -0.8181818181818181 -0.8181818181818181  0.6363636363636365 -0.8181818181818181 -0.8181818181818181  0.8181818181818181 -0.8181818181818181 -0.8181818181818181  1 -0.8181818181818181 -0.8181818181818181  -1 -0.6363636363636364 -0.8181818181818181  -0.8181818181818181 -0.6363636363636364 -0.8181818181818181  -0.6363636363636364 -0.6363636363636364 -0.8181818181818181  -0.4545454545454546 -0.6363636363636364 -0.8181818181818181  -0.2727272727272727 -0.6363636363636364 -0.8181818181818181  -0.09090909090909094 -0.6363636363636364 -0.8181818181818181  0.09090909090909083 -0.6363636363636364 -0.8181818181818181  0.2727272727272727 -0.6363636363636364 -0.8181818181818181  0.4545454545454546 -0.6363636363636364 -0.8181818181818181  0.6363636363636365 -0.6363636363636364 -0.8181818181818181  0.8181818181818181 -0.6363636363636364 -0.8181818181818181  1 -0.6363636363636364 -0.8181818181818181  -1 -0.4545454545454546 -0.8181818181818181  -0.8181818181818181 -0.4545454545454546 -0.8181818181818181  -0.6363636363636364 -0.4545454545454546 -0.8181818181818181  -0.4545454545454546 -0.4545454545454546 -0.8181818181818181  -0.2727272727272727 -0.4545454545454546 -0.8181818181818181  -0.09090909090909094 -0.4545454545454546 -0.8181818181818181  0.09090909090909083 -0.4545454545454546 -0.8181818181818181  0.2727272727272727 -0.4545454545454546 -0.8181818181818181  0.4545454545454546 -0.4545454545454546 -0.8181818181818181  0.6363636363636365 -0.4545454545454546 -0.8181818181818181  0.8181818181818181 -0.4545454545454546 -0.8181818181818181  1 -0.4545454545454546 -0.8181818181818181  -1 -0.2727272727272727 -0.8181818181818181  -0.8181818181818181 -0.2727272727272727 -0.8181818181818181  -0.6363636363636364 -0.2727272727272727 -0.8181818181818181  -0.4545454545454546 -0.2727272727272727 -0.8181818181818181  -0.2727272727272727 -0.2727272727272727 -0.8181818181818181  -0.09090909090909094 -0.2727272727272727 -0.8181818181818181  0.09090909090909083 -0.2727272727272727 -0.8181818181818181  0.2727272727272727 -0.2727272727272727 -0.8181818181818181  0.4545454545454546 -0.2727272727272727 -0.8181818181818181  0.6363636363636365 -0.2727272727272727 -0.8181818181818181  0.8181818181818181 -0.2727272727272727 -0.8181818181818181  1 -0.2727272727272727 -0.8181818181818181  -1 -0.09090909090909094 -0.8181818181818181  -0.8181818181818181 -0.09090909090909094 -0.8181818181818181  -0.6363636363636364 -0.09090909090909094 -0.8181818181818181  -0.4545454545454546 -0.09090909090909094 -0.8181818181818181  -0.2727272727272727 -0.09090909090909094 -0.8181818181818181  -0.09090909090909094 -0.09090909090909094 -0.8181818181818181  0.09090909090909083 -0.09090909090909094 -0.8181818181818181  0.2727272727272727 -0.09090909090909094 -0.8181818181818181  0.4545454545454546 -0.09090909090909094 -0.8181818181818181  0.6363636363636365 -0.09090909090909094 -0.8181818181818181  0.8181818181818181 -0.09090909090909094 -0.8181818181818181  1 -0.09090909090909094 -0.8181818181818181  -1 0.09090909090909083 -0.8181818181818181  -0.8181818181818181 0.09090909090909083 -0.8181818181818181  -0.6363636363636364 0.09090909090909083 -0.8181818181818181  -0.4545454545454546 0.09090909090909083 -0.8181818181818181  -0.2727272727272727 0.09090909090909083 -0.8181818181818181  -0.09090909090909094 0.09090909090909083 -0.8181818181818181  0.09090909090909083 0.090909090909
[...]
<PointData  Scalars="f_5219"> 
<DataArray  type="Float64"  Name="f_5219"  format="ascii">1.4527087885941723e+00  1.6023670799454457e+00  1.8871885463691016e+00  2.2121753118114662e+00  2.3839118159248587e+00  2.1752859654607906e+00  1.6020262579976474e+00  9.8110738647923923e-01  5.8107794324727813e-01  4.0722114746246257e-01  3.8645137424730375e-01  5.0251769259941947e-01  1.0659580257912082e+00  1.1991473348386890e+00  1.5554990066391368e+00  2.0521655995619130e+00  2.4067830947872837e+00  2.3152670152425880e+00  1.7636142807542077e+00  1.1029396952905759e+00  6.5370374228730621e-01  4.4557924956291972e-01  3.9929755229767327e-01  4.7550489159448578e-01  9.0043460396387631e-01  1.0315412692273198e+00  1.4572792371798835e+00  2.1290445223193610e+00  2.7043388026130755e+00  2.7707624824644306e+00  2.2414437067026776e+00  1.4691711208862133e+00  8.6449487935849589e-01  5.4742435330969186e-01  4.3580776899409823e-01  4.5790414645531541e-01  8.8508854152690919e-01  1.0039392058216781e+00  1.4556486460330555e+00  2.2339741867944061e+00  2.9808951226996117e+00  3.2148761964470265e+00  2.7799176754859931e+00  1.9466009666965440e+00  1.1678152318567705e+00  6.9758952982848799e-01  5.0287702868248063e-01  4.8229586493199161e-01  1.0211282362770373e+00  1.0809084426914184e+00  1.4616744430408348e+00  2.1634501015970180e+00  2.9005813714581934e+00  3.2399278802564844e+00  2.9826076269809487e+00  2.2810835298153420e+00  1.4906689725619564e+00  9.2604010324725761e-01  6.5980226337992609e-01  6.2098123226732271e-01  1.3897006066879618e+00  1.3319435226556293e+00  1.5375950137714678e+00  1.9806729819578184e+00  2.4807191151023651e+00  2.7722848206230024e+00  2.7075017245402000e+00  2.3223975323146946e+00  1.7716368861767415e+00  1.2681984622195068e+00  9.8213098607403559e-01  9.4106266645987091e-01  2.0972693171058499e+00  1.8759812115050549e+00  1.8135673421746079e+00  1.8952519314227476e+00  2.0364419719367488e+00  2.1479335221413569e+00  2.1872591581817966e+00  2.1480873035063506e+00  1.9753489833289453e+00  1.6947819696788042e+00  1.4528117912942995e+00  1.4078422099120618e+00  3.0146842836964463e+00  2.6500872051477327e+00  2.3024019143699102e+00  2.0160829008168633e+00  1.8132137455791824e+00  1.7227659097665473e+00  1.7734730465711477e+00  1.9518941715986016e+00  2.1096553186623925e+00  2.0755356419702014e+00  1.9054835553359208e+00  1.8319278485192281e+00  3.6279625957440178e+00  3.2079294497351798e+00  2.7175674902067102e+00  2.2079138491920678e+00  1.8018785835103497e+00  1.6051414790489626e+00  1.6584731320967363e+00  1.9348176325054880e+00  2.2639534685708878e+00  2.3721094244525198e+00  2.2360014649870488e+00  2.1182843062552656e+00  3.4530174670410001e+00  3.0694448535142902e+00  2.6520054885155435e+00  2.2017889908816675e+00  1.8487867277240175e+00  1.7249239988566365e+00  1.8689543986325732e+00  2.2191998974514449e+00  2.5733504337265063e+00  2.6789092288202165e+00  2.5219724990142698e+00  2.3731840524356698e+00  2.6170548792891477e+00  2.3341845798887082e+00  2.1337611577523838e+00  1.9345131653692416e+00  1.8411292299211253e+00  1.9837628239867868e+00  2.3548297459842584e+00  2.7990448785304918e+00  3.0790545089304788e+00  3.0757204946095102e+00  2.8695972430660626e+00  2.7139409119172018e+00  1.7836691795220176e+00  1.6223869488831086e+00  1.6103361644391863e+00  1.6501607451568978e+00  1.8303128588403044e+00  2.2770672941903531e+00  2.9196293033348604e+00  3.4372325216372253e+00  3.6001057308867845e+00  3.4524281383828184e+00  3.2168102475810785e+00  3.0934731648800486e+00  1.7934907198976249e+00  1.9368682132424264e+00  2.3091381012779020e+00  2.7321761527387585e+00  2.8214770732300685e+00  2.3576504137887491e+00  1.5939794796011226e+00  9.7916797972920600e-01  6.5324750685165722e-01  5.3964590223978481e-01  5.7342319907104466e-01  7.7600940921064454e-01  1.3632922397959033e+00  1.4667184084563882e+00  1.8470025186029129e+00  2.3586664338139776e+00  2.6006495658192965e+00  2.2939802468222568e+00  1.6321224451969538e+00  1.0356526862787809e+00  6.9347552293174719e-01  5.5226324925991055e-01  5.4851631605883555e-01  6.8107181469310285e-01  1.1236871491070706e+00  1.1971334359715375e+00  1.5707186818786034e+00  2.1512869864625723e+00  2.5494601098416791e+00  2.4301274612046968e+00  1.8795497557896383e+00  1.2617093399842385e+00  8.2886694915279113e-01  6.0015072826667393e-01  5.2420685297370995e-01  5.8074122220286994e-01  1.0204774383836974e+00  1.0571015666844947e+00  1.4037262545126752e+00  2.0044528384558884e+00  2.5243662560979687e+00  2.5918181099935942e+00  2.1808409451917918e+00  1.5496920121356816e+00  9.9469357005209436e-01  6.4862954003850704e-01  5.0462112743134602e-01  5.2272572922445848e-01  1.0579886365601161e+00  1.0320291858384429e+00  1.3077716457532205e+00  1.8432517881854176e+00  2.3673974474435120e+00  2.5434360271087977e+00  2.2751155364475162e+00  1.7190837468800608e+00  1.1307537273128585e+00  7.2226089372899205e-01  5.4638971883975240e-01  5.6952184965498709e-01  1.3095719844532845e+00  1.1903102082020860e+00  1.3425869683129923e+00  1.7073865617088448e+00  2.0869320548122565e+00  2.2429318794706008e+00  2.0916495710695959e+00  1.7137332572928552e+00  1.2513084644942094e+00  8.8157073856558510e-01  7.1212126644595763e-01  7.6482178629807651e-01  1.8792719769778312e+00  1.6157396067373229e+00  1.5804740501457015e+00  1.7003650615999322e+00  1.8336778360006898e+00  1.8712814655517676e+00  1.7951249398111755e+00  1.6475267559170563e+00  1.4289853645065120e+00  1.1836250412904541e+00  1.0388668773563401e+00  1.1067478525000425e+00  2.7109176426668458e+00  2.2868627625391023e+00  2.0063811145748285e+00  1.8379425578132864e+00  1.7263992044923384e+00  1.6406545496246323e+00  1.6152805335537772e+00  1.6685675122804540e+00  1.7097298163881778e+00  1.6268374891186874e+00  1.4936062355237083e+00  1.5138499326693822e+00  3.4236586836269201e+00  2.8839685132319395e+00  2.4074420769128344e+00  2.0184885825540686e+00  1.7450987448568698e+00  1.6153879715817001e+00  1.6618235419392389e+00  1.8810868139537045e+00  2.1195719728363263e+00  2.1505542957306298e+00  1.9896995225629639e+00  1.9058119219950416e+00  3.5513452295345127e+00  3.0013501427819747e+00  2.4895195024589443e+00  2.0571180150639918e+00  1.7942660324184099e+00  1.7576731454727572e+00  1.9527013129945183e+00  2.3211663083611387e+00  2.6555733885559376e+00  2.7043792512558857e+00  2.4831142302353224e+00  2.3004386949997722e+00  3.0421649171246354e+00  2.6014949252847392e+00  2.2165242745932097e+00  1.9136983930938571e+00  1.8222309055651331e+00  2.0126210440973784e+00  2.4486726023729943e+00  2.9555824295468187e+00  3.2744769699828278e+00  3.2430953920846783e+00  2.9655928051708487e+00  2.7412388191271488e+00  2.3389203832399459e+00  2.0798783459303958e+00  1.8798253488490668e+00  1.7657805290052464e+00  1.8851125404957068e+00  2.3384619553611370e+00  3.0216917170221014e+00  3.6014117862790966e+00  3.8078874490331609e+00  3.6466895631529939e+00  3.3405244876708107e+00  3.1301747427962630e+00  2.2340159063046880e+00  2.3521605424934111e+00  2.7801304925845804e+00  3.2676164961738183e+00  3.2808997564270288e+00  2.5932202386593892e+00  1.6683812466679746e+00  1.0407494909575397e+00  7.7229225630931664e-01  7.2425624637729824e-01  8.2721934752232507e-01  1.1191592811540294e+00  1.7761123801302647e+00  1.8353910017049004e+00  2.2320346602995373e+00  2.7585873519440125e+00  2.8988216031646048e+00  2.3939852342857368e+00  1.6151162876015626e+00  1.0434522908602426e+00  7.7484285996126256e-01  7.0504151356523836e-01  7.6426988761233916e-01  9.6719099516810958e-01  1.4541756584226009e+00  1.4715102521007901e+00  1.8158761143739244e+00  2.3288327641247122e+00  2.5766121265774129e+00  2.2832496651104601e+00  1.6855409904283407e+00  1.1598690856013725e+00  8.4642121190441455e-01  7.0392851014852120e-01  6.8325106326636698e-01  7.9049041769817252e-01  1.2498591342134655e+00  1.2261683940771717e+00  1.5119459491727909e+00  1.9945496799381537e+00  2.3206987721581558e+00  2.2261465087946131e+00  1.8035435031002569e+00  1.3111919137713326e+00  9.2056889740683501e-01  6.8315232285110006e-01  5.9566963983799015e-01  6.6058479732504061e-01  1.1966461197990874e+00  1.1222035197429054e+00  1.3442671341050283e+00  1.7656128083657583e+00  2.1084518579482414e+00  2.1314546634293907e+00  1.8398913175786169e+00  1.3868856454899228e+00  9.5024230491894035e-01  6.6317300721255512e-01  5.5940548555018799e-01  6.3846265860092943e-01  1.3681342004809247e+00  1.2145746355717757e+00  1.3535081535188112e+00  1.6720174659313216e+00  1.9461631409833970e+00  1.9837386708160567e+00  1.7649253744425677e+00  1.3894888981652924e+00  9.9406158638263020e-01  7.1922125629015132e-01  6.3177039494705023e-01  7.5041517264311908e-01  1.8264798883034996e+00  1.5514844687128218e+00  1.5581773812399231e+00  1.7222712477439552e+00  1.8656116347033107e+00  1.8530471872528047e+00  1.6899338267532134e+00  1.4345416451344064e+00  1.1553527136221058e+00  9.3239817538759040e-01  8.6044885073343624e-01  1.0100208358040088e+00  2.5312879623758717e+00  2.0937799005861275e+00  1.9054567933323228e+00  1.8757082335694155e+00  1.8705547074506796e+00  1.8181015371031997e+00  1.7305590169541305e+00  1.6399501981009417e+00  1.5219288533483375e+00  1.3695526259777999e+00  1.2838639868017800e+00  1.4061077167121794e+00  3.2072620077855629e+00  2.6331503052042904e+00  2.2480849287656812e+00  2.0338153321560526e+00  1.9314498005644725e+00  1.8969003487031928e+00  1.9362466275873893e+00  2.0349248968026150e+00  2.0964352303009743e+00  2.0111564875791914e+00  1.8717751135481329e+00  1.9005058716697985e+00  3.4940969852881385e+00  2.8919024936651834e+00  2.4131661896407293e+00  2.1043443172833016e+00  1.9946525771386117e+00  2.0688119868153767e+00  2.2854938239559330e+00  2.5728051946581187e+00  2.7660198070284445e+00  2.7098138513544714e+00  2.5115134541451023e+00  2.4392498399329328e+00  3.2722591170816195e+00  2.7935007195934065e+00  2.3660559075191143e+00  2.0928797708442604e+00  2.0767145528637982e+00  2.3275062663125503e+00  2.7539443020176284e+00  3.1730756514871734e+00  3.3829946961774664e+00  3.2957163934127145e+00  3.0457219412861480e+00  2.9051460075118061e+00  2.7895451604351726e+00  2.5231209473839487e+00  2.2548699610471874e+00  2.1077417983170070e+00  2.2479069585840508e+00  2.7050197699607121e+00  3.2975590454269836e+00  3.7326648339093067e+00  3.8226733705227089e+00  3.6151715798582278e+00  3.3124713347241719e+00  3.1371790998688920e+00  2.5443560450871860e+00  2.6392370596694792e+00  3.0741796670292429e+00  3.5849651113598595e+00  3.5499166940491440e+00  2.7438247321125777e+00  1.7240555312660819e+00  1.0831072324345998e+00  8.4505877682662978e-01  8.4901711564546278e-01  1.0130313667436732e+00  1.3575550430027028e+00  2.0523116349284241e+00  2.0994318033861559e+00  2.5256298638623100e+00  3.0840286255904417e+00  3.1773103685583859e+00  2.5562177981044378e+00  1.6795600002488134e+00  1.0911796265566791e+00  8.5462077575454598e-01  8.3911631194552005e-01  9.5828578889369409e-01  1.2120149766026165e+00  1.7086902820527472e+00  1.7215393163140169e+00  2.0877703274787667e+00  2.6050873883132004e+00  2.7749413753105694e+00  2.3622093167909366e+00  1.6914899639718373e+00  1.1777985080782185e+00  9.2023362142317955e-01  8.4275125623093516e-01  8.8056613046552579e-01  1.0332171731778412e+00  1.4953192951469778e+00  1.4757683254657263e+00  1.7776812913263715e+00  2.2281483983104970e+00  2.4400538431725027e+00  2.2104155643050425e+00  1.7312914418470149e+00  1.2773074666257829e+00  9.6322065999260320e-01  7.9949179997412179e-01  7.6922228289374162e-01  8.7727471375808019e-01  1.4558584783309367e+00  1.3889517603008292e+00  1.6279352499322897e+00  2.0122040464767288e+00  2.2311115128397776e+00  2.1103914702100917e+00  1.7466603813017647e+00  1.3125811491295063e+00  9.4299514410633478e-01  7.2452372792933295e-01  6.7945170403355593e-01  8.0800617483868586e-01  1.6544233255607748e+00  1.5055427366831666e+00  1.6731801011150682e+00  1.9790311170359620e+00  2.1613098309849890e+00  2.0637627884719221e+00  1.7394394542943004e+00  1.3165655625464951e+00  9.3431974004167040e-01  7.1051746145544992e-01  6.8164436521824112e-01  8.6034126266322075e-01  2.0962041988557627e+00  1.8226878341452208e+00  1.8788118068234887e+00  2.0812568765987773e+00  2.1938278833127600e+00  2.0887788789877568e+00  1.7950559402115278e+00  1.4157049350896262e+00  1.0655827834958826e+00  8.5327560298700844e-01  8.4030932831931204e-01  1.0686678637659444e+00  2.6650234163729620e+00  2.2418357309191914e+00  2.1424539782447773e+00  2.2124365912903419e+00  2.2651918695695743e+00  2.1845969564043650e+00  1.9763374020388216e+00  1.7097709678448076e+00  1.4385585452329133e+00  1.2437210328390254e+00  1.2300344386195059e+00  1.4792584254142920e+00  3.1354995063524642e+00  2.6053142580455222e+00  2.3542316953012401e+00  2.3004998637358818e+00  2.3238362312187659e+00  2.3223346275742638e+00  2.2740378447562883e+00  2.1855918081450323e+00  2.0433396889118343e+00  1.8903426495559019e+00  1.8572705958333813e+00  2.0839054765388880e+00  3.3154871822726029e+00  2.8009206532268087e+00  2.4714366719859502e+00  2.3394545400514293e+00  2.3677400664534365e+00  2.4878574235959561e+00  2.6165828816935544e+00  2.7068771786691435e+00  2.6929590482697283e+00  2.5928675709337936e+00  2.5425297794564106e+00  2.7269633718223165e+00  3.1846064614760889e+00  2.8237002879561146e+00  2.5339433898924191e+00  2.4038906551977073e+00  2.4882355948795878e+00  2.7358299647995086e+00  3.0033018037031987e+00  3.1731357603868848e+00  3.1877043475147970e+00  3.0807526911544048e+00  3.0118681581709557e+00  3.1297093951357806e+00  2.9123029382860688e+00  2.7788364529722895e+00  2.6196920464818816e+00  2.5807923735391678e+00  2.7839228286858244e+00  3.1648139964693498e+00  3.4900828534450481e+00  3.5847375338127456e+00  3.4492347598482862e+00  3.2170216438441139e+00  3.0598082423639195e+00  3.0815026956900438e+00  2.5791248944557301e+00  2.6423179536686909e+00  3.0184207851291771e+00  3.4776815212806738e+00  3.4343793575804265e+00  2.6754117548228642e+00  1.7127648802991575e+00  1.1163863231555196e+00  9.1810130579007920e-01  9.7357707959362683e-01  1.2004240516011928e+00  1.5951899788173596e+00  2.0780094210133817e+00  2.1311103557131617e+00  2.5627622104043732e+00  3.1354421357005888e+00  3.2542447573891198e+00  2.6529408698667987e+00  1.7862532823319048e+00  1.2057525197869987e+00  9.9218045957443457e-01  1.0282886800942503e+00  1.2102377504015245e+00  1.5072615561527949e+00  1.8059814147080375e+00  1.8590387365693444e+00  2.2712910100242749e+00  2.8233979877905093e+00  3.0020849206134779e+00  2.5700018409996828e+00  1.8783812154919219e+00  1.3595722309706164e+00  1.1258108287136923e+00  1.1025225860783234e+00  1.2038142435094343e+00  1.3861844873595597e+00  1.7216713923666511e+00  1.7609280039151372e+00  2.1239954585872480e+00  2.5959223050371798e+00  2.7684657033662434e+00  2.4730059354224414e+00  1.9442915070066853e+00  1.4776575797709719e+00  1.1889487831793295e+00  1.0746350143164136e+00  1.1027082355656252e+00  1.2363086550015128e+00  1.8515792989205719e+00  1.8397180923814569e+00  2.1373849281184385e+00  2.5179768315765774e+00  2.6471997158233638e+00  2.4067295800801256e+00  1.9524185452760519e+00  1.4814480883860115e+00  1.1217788480357307e+00  9.4058208783598163e-01  9.4805149697457858e-01  1.1175227092192144e+00  2.2264964091485555e+00  2.1168157551382603e+00  2.3304007615925770e+00  2.6137341915794927e+00  2.6722426832438457e+00  2.4058930225951727e+00  1.9374597195212384e+00  1.4321844941949389e+00  1.0330016364128709e+00  8.3567704702551793e-01  8.6024514936811114e-01  1.0969077265922036e+00  2.7577778512721736e+00  2.5056987606958856e+00  2.6009494355393663e+00  2.7823967093120721e+00  2.7716268194918490e+00  2.4696991322280888e+00  1.9881047344801135e+00  1.4799337296097328e+00  1.0855168270325846e+00  8.9723765176553072e-01  9.5053401316913799e-01  1.2572062617263884e+00  3.1824382670788283e+00  2.8071313731673970e+00  2.7749768606600629e+00  2.8629686255255948e+00  2.8283844615205336e+00  2.5677601673964441e+00  2.1566211067127576e+00  1.7204808260988282e+00  1.3736668030672252e+00  1.2099656709064797e+00  1.3008140793442635e+00  1.6872005372918604e+00  3.3047810883007283e+00  2.8879475049994223e+00  2.7704410821407848e+00  2.8003360188911777e+00  2.7996927354228509e+00  2.6626256244554503e+00  2.4081908189315331e+00  2.1160967338788232e+00  1.8642840453539655e+00  1.7564476215332341e+00  1.9018982077604176e+00  2.3662418321781842e+00  3.1450085029836163e+00  2.8127572966236771e+00  2.6771129017660691e+00  2.6908041298934582e+00  2.7563048348805048e+00  2.7627669540356101e+00  2.6691385940145755e+00  2.5043687191922701e+00  2.3477480376082567e+00  2.3065635804184601e+00  2.5116666920217265e+00  3.0180720619691668e+00  2.8984802992887682e+00  2.7360989752349090e+00  2.6639140563657397e+00  2.7081621057765624e+00  2.8526805093561967e+00  2.9768426806664383e+00  2.9562294349093503e+00  2.7976418999776804e+00  2.6213751593088506e+00  2.5763382446879901e+00  2.7765241731263655e+00  3.2344031551122545e+00  2.7701393500897638e+00  2.7948461425632027e+00  2.8282522723189736e+00  2.9568477396015083e+00  3.2139524556624446e+00  3.4297277307517953e+00  3.3798407367721466e+00  3.0635498323474599e+00  2.6887503948345053e+00  2.4888111339052443e+00  2.5606853152187874e+00  2.8583963020099437e+00  2.3545155871608361e+00  2.3454499521859056e+00  2.5768678836655488e+00  2.9078396647646683e+00  2.8971936170016419e+00  2.3457783886393444e+00  1.6441752902437086e+00  1.2166635690970211e+00  1.1281701372629218e+00  1.3031562773690748e+00  1.6571233403286845e+00  2.1286927856422646e+00  1.9519302736110584e+00  1.9788371915737395e+00  2.3237889742073530e+00  2.8264871574456407e+00  2.9908468719728440e+00  2.5617474909365145e+00  1.8872301961566709e+00  1.4327800409762417e+00  1.3132711140780962e+00  1.4581539181009568e+00  1.7565816096873419e+00  2.1045507206569161e+00  1.8366299051667232e+00  1.9007298349160349e+00  2.2818992665840487e+00  2.8032622524932842e+00  3.0223367733213253e+00  2.7173205038962633e+00  2.1591929598646398e+00  1.7315260272671458e+00  1.5718675864593481e+00  1.6414340851704086e+00  1.8377717312424218e+00  2.0463023157942968e+00  1.9566573657746280e+00  2.0301184407844066e+00  2.3888720896932871e+00  2.8301212463185763e+00  3.0130833518464666e+00  2.7790205872097693e+00  2.3281455555399742e+00  1.9142899277925864e+00  1.6731213050660794e+00  1.6243724903815395e+00  1.7235673695930562e+00  1.8720666388019969e+00  2.3304125334067853e+00  2.3594654275066365e+00  2.6469865381684587e+00  2.9680771899366114e+00  3.0445869379165602e+00  2.7880067446639787e+00  2.3416826957059915e+00  1.8725890886316685e+00  1.5243548750574292e+00  1.3724894099121403e+00  1.4385068787940871e+00  1.6348513887977216e+00  2.9601800936615401e+00  2.8724486978216732e+00  3.0569970161966014e+00  3.2459687795795120e+00  3.1744001028865165e+00  2.7978194470796720e+00  2.2563984951616152e+00  1.7076262130349509e+00  1.2977237770651644e+00  1.1221348922254228e+00  1.1996338885358229e+00  1.4810418292402288e+00  3.6186906583943350e+00  3.3926356827717652e+00  3.4597480371248164e+00  3.5293896135579450e+00  3.3249641474211407e+00  2.8191292721266739e+00  2.1870665592872545e+00  1.6141069558969257e+00  1.2218269149319629e+00  1.0721677278768758e+00  1.1926678092989860e+00  1.5638488385018967e+00  3.9169402111320784e+00  3.6090654238151250e+00  3.5929469337682449e+00  3.6008094194594795e+00  3.3550691100828978e+00  2.8386948171260418e+00  2.2234258645772527e+00  1.7046616422109768e+00  1.3735863019671690e+00  1.2874556494821152e+00  1.4891735957550147e+00  1.9863772668682629e+00  3.6648763810249938e+00  3.3924310996390408e+00  3.3666384588061322e+00  3.3875730614335144e+00  3.2337134441432189e+00  2.8433249686894677e+00  2.3518868650977187e+00  1.9326633100877308e+00  1.6853734224649752e+00  1.6917310691650009e+00  2.0190205458516690e+00  2.6664196276458885e+00  3.1002222138480557e+00  2.9507026597749