<?xml version="1.0"?>
<VTKFile type="UnstructuredGrid"  version="0.1"  >
<UnstructuredGrid>
<Piece  NumberOfPoints="1728" NumberOfCells="7986">
<Points>
<DataArray  type="Float64"  NumberOfComponents="3"  format="ascii">-1 -1 -1  -0.8181818181818181 -1 -1  -0.6363636363636364 -1 -1  -0.4545454545454546 -1 -1  -0.2727272727272727 -1 -1  -0.09090909090909094 -1 -1  0.09090909090909083 -1 -1  0.2727272727272727 -1 -1  0.4545454545454546 -1 -1  0.6363636363636365 -1 -1  0.8181818181818181 -1 -1  1 -1 -1  -1 -0.8181818181818181 -1  -0.8181818181818181 -0.8181818181818181 -1  -0.6363636363636364 -0.8181818181818181 -1  -0.4545454545454546 -0.8181818181818181 -1  -0.2727272727272727 -0.8181818181818181 -1  -0.09090909090909094 -0.8181818181818181 -1  0.09090909090909083 -0.8181818181818181 -1  0.2727272727272727 -0.8181818181818181 -1  0.4545454545454546 -0.8181818181818181 -1  0.6363636363636365 -0.8181818181818181 -1  0.8181818181818181 -0.8181818181818181 -1  1 -0.8181818181818181 -1  -1 -0.6363636363636364 -1  -0.8181818181818181 -0.6363636363636364 -1  -0.6363636363636364 -0.6363636363636364 -1  -0.4545454545454546 -0.6363636363636364 -1  -0.2727272727272727 -0.6363636363636364 -1  -0.09090909090909094 -0.6363636363636364 -1  0.09090909090909083 -0.6363636363636364 -1  0.2727272727272727 -0.6363636363636364 -1  0.4545454545454546 -0.6363636363636364 -1  0.6363636363636365 -0.6363636363636364 -1  0.8181818181818181 -0.6363636363636364 -1  1 -0.6363636363636364 -1  -1 -0.4545454545454546 -1  -0.8181818181818181 -0.4545454545454546 -1  -0.6363636363636364 -0.4545454545454546 -1  -0.4545454545454546 -0.4545454545454546 -1  -0.2727272727272727 -0.4545454545454546 -1  -0.09090909090909094 -0.4545454545454546 -1  0.09090909090909083 -0.4545454545454546 -1  0.2727272727272727 -0.4545454545454546 -1  0.4545454545454546 -0.4545454545454546 -1  0.6363636363636365 -0.4545454545454546 -1  0.8181818181818181 -0.4545454545454546 -1  1 -0.4545454545454546 -1  -1 -0.2727272727272727 -1  -0.8181818181818181 -0.2727272727272727 -1  -0.6363636363636364 -0.2727272727272727 -1  -0.4545454545454546 -0.2727272727272727 -1  -0.2727272727272727 -0.2727272727272727 -1  -0.09090909090909094 -0.2727272727272727 -1  0.09090909090909083 -0.2727272727272727 -1  0.2727272727272727 -0.2727272727272727 -1  0.4545454545454546 -0.2727272727272727 -1  0.6363636363636365 -0.2727272727272727 -1  0.8181818181818181 -0.2727272727272727 -1  1 -0.2727272727272727 -1  -1 -0.09090909090909094 -1  -0.8181818181818181 -0.09090909090909094 -1  -0.6363636363636364 -0.09090909090909094 -1  -0.4545454545454546 -0.09090909090909094 -1  -0.2727272727272727 -0.09090909090909094 -1  -0.09090909090909094 -0.09090909090909094 -1  0.09090909090909083 -0.09090909090909094 -1  0.2727272727272727 -0.09090909090909094 -1  0.4545454545454546 -0.09090909090909094 -1  0.6363636363636365 -0.09090909090909094 -1  0.8181818181818181 -0.09090909090909094 -1  1 -0.09090909090909094 -1  -1 0.09090909090909083 -1  -0.8181818181818181 0.09090909090909083 -1  -0.6363636363636364 0.09090909090909083 -1  -0.4545454545454546 0.09090909090909083 -1  -0.2727272727272727 0.09090909090909083 -1  -0.09090909090909094 0.09090909090909083 -1  0.09090909090909083 0.09090909090909083 -1  0.2727272727272727 0.09090909090909083 -1  0.4545454545454546 0.09090909090909083 -1  0.6363636363636365 0.09090909090909083 -1  0.8181818181818181 0.09090909090909083 -1  1 0.09090909090909083 -1  -1 0.2727272727272727 -1  -0.8181818181818181 0.2727272727272727 -1  -0.6363636363636364 0.2727272727272727 -1  -0.4545454545454546 0.2727272727272727 -1  -0.2727272727272727 0.2727272727272727 -1  -0.09090909090909094 0.2727272727272727 -1  0.09090909090909083 0.2727272727272727 -1  0.2727272727272727 0.2727272727272727 -1  0.4545454545454546 0.2727272727272727 -1  0.6363636363636365 0.2727272727272727 -1  0.8181818181818181 0.2727272727272727 -1  1 0.2727272727272727 -1  -1 0.4545454545454546 -1  -0.8181818181818181 0.4545454545454546 -1  -0.6363636363636364 0.4545454545454546 -1  -0.4545454545454546 0.4545454545454546 -1  -0.2727272727272727 0.4545454545454546 -1  -0.09090909090909094 0.4545454545454546 -1  0.09090909090909083 0.4545454545454546 -1  0.2727272727272727 0.4545454545454546 -1  0.4545454545454546 0.4545454545454546 -1  0.6363636363636365 0.4545454545454546 -1  0.8181818181818181 0.4545454545454546 -1  1 0.4545454545454546 -1  -1 0.6363636363636365 -1  -0.8181818181818181 0.6363636363636365 -1  -0.6363636363636364 0.6363636363636365 -1  -0.4545454545454546 0.6363636363636365 -1  -0.2727272727272727 0.6363636363636365 -1  -0.09090909090909094 0.6363636363636365 -1  0.09090909090909083 0.6363636363636365 -1  0.2727272727272727 0.6363636363636365 -1  0.4545454545454546 0.6363636363636365 -1  0.6363636363636365 0.6363636363636365 -1  0.8181818181818181 0.6363636363636365 -1  1 0.6363636363636365 -1  -1 0.8181818181818181 -1  -0.8181818181818181 0.8181818181818181 -1  -0.6363636363636364 0.8181818181818181 -1  -0.4545454545454546 0.8181818181818181 -1  -0.2727272727272727 0.8181818181818181 -1  -0.09090909090909094 0.8181818181818181 -1  0.09090909090909083 0.8181818181818181 -1  0.2727272727272727 0.8181818181818181 -1  0.4545454545454546 0.8181818181818181 -1  0.6363636363636365 0.8181818181818181 -1  0.8181818181818181 0.8181818181818181 -1  1 0.8181818181818181 -1  -1 1 -1  -0.8181818181818181 1 -1  -0.6363636363636364 1 -1  -0.4545454545454546 1 -1  -0.2727272727272727 1 -1  -0.09090909090909094 1 -1  0.09090909090909083 1 -1  0.2727272727272727 1 -1  0.4545454545454546 1 -1  0.6363636363636365 1 -1  0.8181818181818181 1 -1  1 1 -1  -1 -1 -0.8181818181818181  -0.8181818181818181 -1 -0.8181818181818181  -0.6363636363636364 -1 -0.8181818181818181  -0.4545454545454546 -1 -0.8181818181818181  -0.2727272727272727 -1 -0.8181818181818181  -0.09090909090909094 -1 -0.8181818181818181  0.09090909090909083 -1 -0.8181818181818181  0.2727272727272727 -1 -0.8181818181818181  0.4545454545454546 -1 -0.8181818181818181  0.6363636363636365 -1 -0.8181818181818181  0.8181818181818181 -1 -0.8181818181818181  1 -1 -0.8181818181818181  -1 -0.8181818181818181 -0.8181818181818181  -0.8181818181818181 -0.8181818181818181 -0.8181818181818181  -0.6363636363636364 -0.8181818181818181 -0.8181818181818181  -0.4545454545454546 -0.8181818181818181 -0.8181818181818181  -0.2727272727272727 -0.8181818181818181 -0.8181818181818181  -0.09090909090909094 -0.8181818181818181 -0.8181818181818181  0.09090909090909083 -0.8181818181818181 -0.8181818181818181  0.2727272727272727 -0.8181818181818181 -0.8181818181818181  0.4545454545454546 -0.8181818181818181 -0.8181818181818181  0.6363636363636365 -0.8181818181818181 -0.8181818181818181  0.8181818181818181 -0.8181818181818181 -0.8181818181818181  1 -0.8181818181818181 -0.8181818181818181  -1 -0.6363636363636364 -0.8181818181818181  -0.8181818181818181 -0.6363636363636364 -0.8181818181818181  -0.6363636363636364 -0.6363636363636364 -0.8181818181818181  -0.4545454545454546 -0.6363636363636364 -0.8181818181818181  -0.2727272727272727 -0.6363636363636364 -0.8181818181818181  -0.09090909090909094 -0.6363636363636364 -0.8181818181818181  0.09090909090909083 -0.6363636363636364 -0.8181818181818181  0.2727272727272727 -0.6363636363636364 -0.8181818181818181  0.4545454545454546 -0.6363636363636364 -0.8181818181818181  0.6363636363636365 -0.6363636363636364 -0.8181818181818181  0.8181818181818181 -0.6363636363636364 -0.8181818181818181  1 -0.6363636363636364 -0.8181818181818181  -1 -0.4545454545454546 -0.8181818181818181  -0.8181818181818181 -0.4545454545454546 -0.8181818181818181  -0.6363636363636364 -0.4545454545454546 -0.8181818181818181  -0.4545454545454546 -0.4545454545454546 -0.8181818181818181  -0.2727272727272727 -0.4545454545454546 -0.8181818181818181  -0.09090909090909094 -0.4545454545454546 -0.8181818181818181  0.09090909090909083 -0.4545454545454546 -0.8181818181818181  0.2727272727272727 -0.4545454545454546 -0.8181818181818181  0.4545454545454546 -0.4545454545454546 -0.8181818181818181  0.6363636363636365 -0.4545454545454546 -0.8181818181818181  0.8181818181818181 -0.4545454545454546 -0.8181818181818181  1 -0.4545454545454546 -0.8181818181818181  -1 -0.2727272727272727 -0.8181818181818181  -0.8181818181818181 -0.2727272727272727 -0.8181818181818181  -0.6363636363636364 -0.2727272727272727 -0.8181818181818181  -0.4545454545454546 -0.2727272727272727 -0.8181818181818181  -0.2727272727272727 -0.2727272727272727 -0.8181818181818181  -0.09090909090909094 -0.2727272727272727 -0.8181818181818181  0.09090909090909083 -0.2727272727272727 -0.8181818181818181  0.2727272727272727 -0.2727272727272727 -0.8181818181818181  0.4545454545454546 -0.2727272727272727 -0.8181818181818181  0.6363636363636365 -0.2727272727272727 -0.8181818181818181  0.8181818181818181 -0.2727272727272727 -0.8181818181818181  1 -0.2727272727272727 -0.8181818181818181  -1 -0.09090909090909094 -0.8181818181818181  -0.8181818181818181 -0.09090909090909094 -0.8181818181818181  -0.6363636363636364 -0.09090909090909094 -0.8181818181818181  -0.4545454545454546 -0.09090909090909094 -0.8181818181818181  -0.2727272727272727 -0.09090909090909094 -0.8181818181818181  -0.09090909090909094 -0.09090909090909094 -0.8181818181818181  0.09090909090909083 -0.09090909090909094 -0.8181818181818181  0.2727272727272727 -0.09090909090909094 -0.8181818181818181  0.4545454545454546 -0.09090909090909094 -0.8181818181818181  0.6363636363636365 -0.09090909090909094 -0.8181818181818181  0.8181818181818181 -0.09090909090909094 -0.8181818181818181  1 -0.09090909090909094 -0.8181818181818181  -1 0.09090909090909083 -0.8181818181818181  -0.8181818181818181 0.09090909090909083 -0.8181818181818181  -0.6363636363636364 0.09090909090909083 -0.8181818181818181  -0.4545454545454546 0.09090909090909083 -0.8181818181818181  -0.2727272727272727 0.09090909090909083 -0.8181818181818181  -0.09090909090909094 0.09090909090909083 -0.8181818181818181  0.09090909090909083 0.090909090909
[...]
<PointData  Scalars="f_5216"> 
<DataArray  type="Float64"  Name="f_5216"  format="ascii">7.5708781087350219e-01  7.6807391481040155e-01  7.8717659786351035e-01  8.0515184146409369e-01  8.1006625636208185e-01  8.0007695041076987e-01  7.8539571261086161e-01  7.7359239744562891e-01  7.6598167930175398e-01  7.6091301422349433e-01  7.5636541877564256e-01  7.5264324597515964e-01  6.7592554429776153e-01  6.8882882668311896e-01  7.0115043812918409e-01  7.1123293167385393e-01  7.1610617452212055e-01  7.1565802862918315e-01  7.1258989857842792e-01  7.0880825857660601e-01  7.0453445684852445e-01  6.9896261226587342e-01  6.9095570366373493e-01  6.8002842595159185e-01  5.9885295240282099e-01  6.1200666771707746e-01  6.2120017777982817e-01  6.2743823231230467e-01  6.3250675864595618e-01  6.3749302735950497e-01  6.4138935702921218e-01  6.4288968348248687e-01  6.4114326942665456e-01  6.3530428809770156e-01  6.2411185267600222e-01  6.0511450350391505e-01  5.3628388979225428e-01  5.4923344618401126e-01  5.5855220605177125e-01  5.6580105153757454e-01  5.7329229934450365e-01  5.8118228863919108e-01  5.8736039669390638e-01  5.8999539485407715e-01  5.8793116068579554e-01  5.8026625707750601e-01  5.6613337431756894e-01  5.4425137692070757e-01  4.8421672714153641e-01  4.9630064208556268e-01  5.0628125790123202e-01  5.1566172280404121e-01  5.2579017509781834e-01  5.3551594254208235e-01  5.4231094896341325e-01  5.4430368998542744e-01  5.4022312142779527e-01  5.2932690918863334e-01  5.1163945419450518e-01  4.8722806749200476e-01  4.4216048166639843e-01  4.5260707921839005e-01  4.6226867249198089e-01  4.7240588817773183e-01  4.8345645896133604e-01  4.9346576171258133e-01  4.9967039071776009e-01  5.0002019586480628e-01  4.9316299956925647e-01  4.7881522872778032e-01  4.5807652174732999e-01  4.3194964530211821e-01  4.0894972794035989e-01  4.1757311123180341e-01  4.2580634761941794e-01  4.3463271279522198e-01  4.4408928742955134e-01  4.5217075978790822e-01  4.5611274036405502e-01  4.5379310686291136e-01  4.4410723233883576e-01  4.2756344292220055e-01  4.0595580369541140e-01  3.8008243983817402e-01  3.8184589875084474e-01  3.8906631150504289e-01  3.9543242161524583e-01  4.0170285565833735e-01  4.0783989074460553e-01  4.1224202982956010e-01  4.1259603480635176e-01  4.0718826377247541e-01  3.9564249623617898e-01  3.7913601944007042e-01  3.5916886508061929e-01  3.3557157703348767e-01  3.5828358709042163e-01  3.6467034977161594e-01  3.6925294006801695e-01  3.7272564651070567e-01  3.7526170837980172e-01  3.7593984155358245e-01  3.7315231067626364e-01  3.6581607326216625e-01  3.5411737382173397e-01  3.3921924064654418e-01  3.2189743816580990e-01  3.0153205390903798e-01  3.3700767260231673e-01  3.4299646976385723e-01  3.4598971053889838e-01  3.4687630010864001e-01  3.4640831056492705e-01  3.4456890511724658e-01  3.4036951792587411e-01  3.3298174751470749e-01  3.2250911910716457e-01  3.0963093948844422e-01  2.9474506668091138e-01  2.7756752613984026e-01  3.1848215692853432e-01  3.2415102977083965e-01  3.2552054380753381e-01  3.2392920897944011e-01  3.2106847155023704e-01  3.1795099623220152e-01  3.1383228494128729e-01  3.0754677059288121e-01  2.9875176436952722e-01  2.8773695703228203e-01  2.7491226443501238e-01  2.6046679337483852e-01  3.0527967707833065e-01  3.0997753439241532e-01  3.0906689400895326e-01  3.0450417246129347e-01  2.9930823448763200e-01  2.9555501625634095e-01  2.9216110248573002e-01  2.8713750567366170e-01  2.7972495633217243e-01  2.7016999538892889e-01  2.5914816577735106e-01  2.4656888265762464e-01  7.6689586156127909e-01  7.7635704323502286e-01  7.9416305522376063e-01  8.1026088034808275e-01  8.1283149344304451e-01  8.0043309509982297e-01  7.8408131264760428e-01  7.7169065314766727e-01  7.6460082389760475e-01  7.6118111572556968e-01  7.5879325351781435e-01  7.5567270499453965e-01  6.8808940029570975e-01  7.0042809752114121e-01  7.1384295721323454e-01  7.2494361121201389e-01  7.2948861304850299e-01  7.2714539188904015e-01  7.2195792431163053e-01  7.1684314369402491e-01  7.1219417075648495e-01  7.0698573033983536e-01  6.9963976339925626e-01  6.8911365576161543e-01  6.1226653435384215e-01  6.2792884802402660e-01  6.4028965444049912e-01  6.4968814476230541e-01  6.5574816250609880e-01  6.5903733917350482e-01  6.6053061077689312e-01  6.6044577548644745e-01  6.5819824138529359e-01  6.5255898527773559e-01  6.4173396016807338e-01  6.2349326698175234e-01  5.4992552881397361e-01  5.6531452906907076e-01  5.7787885702255992e-01  5.8819939681356237e-01  5.9667300361016329e-01  6.0338378376380930e-01  6.0804751384299416e-01  6.1009369455506723e-01  6.0856150576154766e-01  6.0198970138655894e-01  5.8858755163893883e-01  5.6698379546380828e-01  4.9703565096493180e-01  5.1129107070915114e-01  5.2431005577370282e-01  5.3652912119034013e-01  5.4775978021710936e-01  5.5698509648084804e-01  5.6320659569218257e-01  5.6565852165686548e-01  5.6326871214680441e-01  5.5450204361623801e-01  5.3795487280958265e-01  5.1336413854973206e-01  4.5331163181500583e-01  4.6571217563771461e-01  4.7831839028617218e-01  4.9145921122522257e-01  5.0428465578924897e-01  5.1482683471366109e-01  5.2150874350591536e-01  5.2329549204600445e-01  5.1894367912462036e-01  5.0706496434145354e-01  4.8711383881342585e-01  4.6013122997362127e-01  4.1835684871035811e-01  4.2868999320878415e-01  4.3978316565221132e-01  4.5188284530512202e-01  4.6396577991864058e-01  4.7376008139434300e-01  4.7929039922041905e-01  4.7918541854482988e-01  4.7212818271105828e-01  4.5729851598908977e-01  4.3535721476858724e-01  4.0807499736766772e-01  3.9012058624294910e-01  3.9881734995536766e-01  4.0787504343531011e-01  4.1745853903322261e-01  4.2664680852459402e-01  4.3341688114398080e-01  4.3585484867502694e-01  4.3265110563123355e-01  4.2298513429012952e-01  4.0701869908825405e-01  3.8602250191572240e-01  3.6113968965913623e-01  3.6621423379680124e-01  3.7390687812263224e-01  3.8098305650314873e-01  3.8758064750060117e-01  3.9301321300590120e-01  3.9576941777420177e-01  3.9446625119897150e-01  3.8838263642490706e-01  3.7754782570673051e-01  3.6271342221832370e-01  3.4467614173496985e-01  3.2358909423527782e-01  3.4524028727569472e-01  3.5243427459294824e-01  3.5776003087844505e-01  3.6154181456269163e-01  3.6354984862251105e-01  3.6305648419717063e-01  3.5936727069175400e-01  3.5223398611242807e-01  3.4194948765198413e-01  3.2907469864002903e-01  3.1387815345851811e-01  2.9633615138227209e-01  3.2720163119734186e-01  3.3410469293614325e-01  3.3773495696830907e-01  3.3891126780173292e-01  3.3824185762315995e-01  3.3596523321442773e-01  3.3171926076495079e-01  3.2508017202114570e-01  3.1603870294183006e-01  3.0485272797997215e-01  2.9170122761354322e-01  2.7686743033195221e-01  3.1367431243677757e-01  3.1988016183840978e-01  3.2126210845808989e-01  3.1943373328479552e-01  3.1634426648309188e-01  3.1327666397712906e-01  3.0952229589028135e-01  3.0390239404242264e-01  2.9607263260354172e-01  2.8628790027304368e-01  2.7486389143034007e-01  2.6169092670888450e-01  7.8079300490292280e-01  7.8849049612504374e-01  8.0048433130170193e-01  8.0883372077283777e-01  8.0586452635516514e-01  7.9222750389594720e-01  7.7664671439625876e-01  7.6518241743188686e-01  7.5901463833523564e-01  7.5712465612269964e-01  7.5734857063061467e-01  7.5670803593175595e-01  6.9883895715802902e-01  7.1168618666056960e-01  7.2395083909022173e-01  7.3233750246127061e-01  7.3390935208475550e-01  7.2961158954009020e-01  7.2343557847029938e-01  7.1791120651663265e-01  7.1334868875064916e-01  7.0887665882966133e-01  7.0292802540602184e-01  6.9364705273000959e-01  6.2292655234392591e-01  6.4068478556297503e-01  6.5460755419569194e-01  6.6428911800847223e-01  6.6911585007245145e-01  6.7035302961719923e-01  6.6997163514055480e-01  6.6868562518280794e-01  6.6604140833262193e-01  6.6088984017738373e-01  6.5141585465391882e-01  6.3478698041405779e-01  5.6105973502027484e-01  5.7870261121947109e-01  5.9375200672540207e-01  6.0549316955433108e-01  6.1350758608417899e-01  6.1853049975137120e-01  6.2153784290534309e-01  6.2262507281624679e-01  6.2102465275010332e-01  6.1534737730782341e-01  6.0372878986025480e-01  5.8416580807743224e-01  5.0783974175507507e-01  5.2419430137576162e-01  5.3982794925810451e-01  5.5389767455406591e-01  5.6526570717473945e-01  5.7344297214199857e-01  5.7864267553551563e-01  5.8079055217588149e-01  5.7905070078378529e-01  5.7189829520050961e-01  5.5764749985688222e-01  5.3529741951996079e-01  4.6283977111695024e-01  4.7717595061714779e-01  4.9234385126872188e-01  5.0776389636749819e-01  5.2160473508451310e-01  5.3208985518828167e-01  5.3862274303844115e-01  5.4087752992972793e-01  5.3787805969468783e-01  5.2805556126279862e-01  5.1030172350050540e-01  4.8511759245804387e-01  4.2625525191647162e-01  4.3834730040995246e-01  4.5189889251571491e-01  4.6666671079387695e-01  4.8078249358012920e-01  4.9178066459085951e-01  4.9827184309824912e-01  4.9943963293544685e-01  4.9405480583136613e-01  4.8084056914339784e-01  4.5997529631870415e-01  4.3353839793239968e-01  3.9679467705654003e-01  4.0700289664978045e-01  4.1831740812151547e-01  4.3065850668992944e-01  4.4252177349093802e-01  4.5150075625189839e-01  4.5580871692221736e-01  4.5426816908093248e-01  4.4581432533220489e-01  4.3024821892408338e-01  4.0909375288270855e-01  3.8444688712646574e-01  3.7246437288782186e-01  3.8137457878458819e-01  3.9042194272466418e-01  3.9955810460598928e-01  4.0762819078865514e-01  4.1267150634244903e-01  4.1312697181644364e-01  4.0817792598875402e-01  3.9771864749836872e-01  3.8265368512500542e-01  3.6436353014600237e-01  3.4359311384679525e-01  3.5187340023877711e-01  3.5999764074189067e-01  3.6704302302041858e-01  3.7305733780595168e-01  3.7726638571612264e-01  3.7841621808567683e-01  3.7569171644436689e-01  3.6896937342809322e-01  3.5871268763628683e-01  3.4575266306045227e-01  3.3064937501543834e-01  3.1361662938421442e-01  3.3466884853633572e-01  3.4232956236578865e-01  3.4761887161380117e-01  3.5096005600435892e-01  3.5225145055916113e-01  3.5112197193623529e-01  3.4726054514318394e-01  3.4059613741482470e-01  3.3140338343680409e-01  3.2012409031100142e-01  3.0706830006582608e-01  2.9268751684196131e-01  3.2168181779371763e-01  3.2872209464356639e-01  3.3208447358569093e-01  3.3289264890340226e-01  3.3216572339733108e-01  3.3023662416010585e-01  3.2645552003302075e-01  3.2029988880759913e-01  3.1192993243145939e-01  3.0181939488201281e-01  2.9029991517981019e-01  2.7728393411473828e-01  7.9323985445551504e-01  7.9732559040839790e-01  8.0058075240279536e-01  7.9977138897098343e-01  7.9237295561521259e-01  7.7994913954959011e-01  7.6730945477759249e-01  7.5790249348621530e-01  7.5264960841345130e-01  7.5111435297909401e-01  7.5192225034565296e-01  7.5229300675390154e-01  7.0791875872146104e-01  7.2064957826785436e-01  7.2988402667449437e-01  7.3402539664381949e-01  7.3260582329704582e-01  7.2745177020914831e-01  7.2141881744252223e-01  7.1611256957252012e-01  7.1168751946390674e-01  7.0748855346704065e-01  7.0230287480749509e-01  6.9424728216858145e-01  6.3115052302751740e-01  6.5077904766738781e-01  6.6486678552833833e-01  6.7317809701273279e-01  6.7616855045103175e-01  6.7588434321242086e-01  6.7438714090957808e-01  6.7234448285687776e-01  6.6931550801375517e-01  6.6431340026415064e-01  6.5587766947941550e-01  6.4144935153270166e-01  5.6942146009806516e-01  5.8948261278199432e-01  6.0623206648385042e-01  6.1801762329655485e-01  6.2476046763976945e-01  6.2815498692497862e-01  6.2980595785886750e-01  6.3002207266108101e-01  6.2807833665333956e-01  6.2273021850024535e-01  6.1251340132445009e-01  5.9578627342058754e-01  5.1599183558284245e-01  5.3479496525250392e-01  5.5269765739379162e-01  5.6753525941462168e-01  5.7803778080306967e-01  5.8477536451879464e-01  5.8882242128660467e-01  5.9039879154533581e-01  5.8870318092787388e-01  5.8232629515391032e-01  5.6993890420246363e-01  5.5087920365696186e-01  4.7008933734059538e-01  4.8672698883884780e-01  5.0424038427084861e-01  5.2099558576230565e-01  5.3468448197680307e-01  5.4429961252312109e-01  5.5014372694089486e-01  5.5227641829884599e-01  5.4979606495357269e-01  5.4117164633635384e-01  5.2550088043405430e-01  5.0360008479531371e-01  4.3214997346730510e-01  4.4631158446827163e-01  4.6203103748407170e-01  4.7857751198030957e-01  4.9352143810854932e-01  5.0464781154335181e-01  5.1124127245983608e-01  5.1288771148933687e-01  5.0842637143125868e-01  4.9642591982732320e-01  4.7715409387311281e-01  4.5326187956288255e-01  4.0151569094567868e-01  4.1345556395525918e-01  4.2658825314372451e-01  4.4077547939341521e-01  4.5419152092785303e-01  4.6436808047216710e-01  4.6975446037396679e-01  4.6931975624971262e-01  4.6182030486596970e-01  4.4683258266781312e-01  4.2630291469590770e-01  4.0321776150141420e-01  3.7675798627581814e-01  3.8695491542659660e-01  3.9737578162514969e-01  4.0803714650534068e-01  4.1769165401913982e-01  4.2429974148855853e-01  4.2621910362202686e-01  4.2243348251564133e-01  4.1257221942317424e-01  3.9768137887324695e-01  3.7974199283313270e-01  3.5999842712707930e-01  3.5660510531633022e-01  3.6557875053414191e-01  3.7363031742167346e-01  3.8078925087962201e-01  3.8619914137601408e-01  3.8853508946237231e-01  3.8687473294124564e-01  3.8094819507651645e-01  3.7118412228144232e-01  3.5860948550696170e-01  3.4406470884812640e-01  3.2784323953687489e-01  3.4035035265489955e-01  3.4859790088459980e-01  3.5484044218695759e-01  3.5933455639166140e-01  3.6173627247034601e-01  3.6149133503661923e-01  3.5825935536002146e-01  3.5201790763634178e-01  3.4312356108957942e-01  3.3217487838204152e-01  3.1960037314213113e-01  3.0580799148298687e-01  3.2804138264314325e-01  3.3580962005288106e-01  3.4066902276864663e-01  3.4340143661936284e-01  3.4436531462194453e-01  3.4331926112198158e-01  3.3971294982010836e-01  3.3336901550315118e-01  3.2471648414883858e-01  3.1445829716321783e-01  3.0305465043567587e-01  2.9040113850559812e-01  8.0406114620068747e-01  8.0375354344682970e-01  7.9860294296722856e-01  7.9059671792325270e-01  7.8043277540302070e-01  7.6948779340261553e-01  7.5973545106142315e-01  7.5247655221350418e-01  7.4805858091398980e-01  7.4626614124884216e-01  7.4632015364721238e-01  7.4629132130541775e-01  7.1504407691869476e-01  7.2727330527670531e-01  7.3299113375522840e-01  7.3334558106044723e-01  7.2989935121199445e-01  7.2459868607616862e-01  7.1914348664135153e-01  7.1429093174038982e-01  7.0998056133789911e-01  7.0572601459695239e-01  7.0070060242775045e-01  6.9340948524375423e-01  6.3614627944632884e-01  6.5779793386939567e-01  6.7132492759213658e-01  6.7792273992607888e-01  6.7952249139361143e-01  6.7851376063509572e-01  6.7660186072068751e-01  6.7421631617903777e-01  6.7088695818338162e-01  6.6578009531413374e-01  6.5783128583014361e-01  6.4505569037324484e-01  5.7369511030400511e-01  5.9657732639289196e-01  6.1446899917770559e-01  6.2575163866553563e-01  6.3140836004270895e-01  6.3381745880277851e-01  6.3470475926943004e-01  6.3437029284795898e-01  6.3206551112341358e-01  6.2665124368586955e-01  6.1709431793638281e-01  6.0238604336252721e-01  5.1998433697624913e-01  5.4158530605894128e-01  5.6145968460583162e-01  5.7651635215728625e-01  5.8606810609596316e-01  5.9166790207494202e-01  5.9485619490812258e-01  5.9593471885937899e-01  5.9403771570490771e-01  5.8780330842389983e-01  5.7633485275718155e-01  5.5962971751799284e-01  4.7388822024018007e-01  4.9293626020092107e-01  5.1255556364815369e-01  5.3004237976839297e-01  5.4312215872826941e-01  5.5170621686252308e-01  5.5675032429930416e-01  5.5850410484166702e-01  5.5601932809596555e-01  5.4778128630366851e-01  5.3331185631247824e-01  5.1402590230033263e-01  4.3556107769902125e-01  4.5169735085532647e-01  4.6920464428554720e-01  4.8681733157106799e-01  5.0181296846998702e-01  5.1243325532660000e-01  5.1855649977949425e-01  5.2006406334055411e-01  5.1580291852816107e-01  5.0433602663764732e-01  4.8634335260889566e-01  4.6496603550904908e-01  4.0444751928879286e-01  4.1792466701388176e-01  4.3234081615266728e-01  4.4757850144184086e-01  4.6166039761741962e-01  4.7215568551995202e-01  4.7777870310693904e-01  4.7769452893049230e-01  4.7063021588924797e-01  4.5615068675811687e-01  4.3665940610974874e-01  4.1550223394272384e-01  3.7959318673369247e-01  3.9084558675730641e-01  4.0203501613578363e-01  4.1339622185632019e-01  4.2378830955561675e-01  4.3119604900296471e-01  4.3395853137500451e-01  4.3100297210906025e-01  4.2182048494279328e-01  4.0752597463168549e-01  3.9043195981029555e-01  3.7191312286311867e-01  3.5996112028220351e-01  3.6954944796847822e-01  3.7800825215549577e-01  3.8553664896975448e-01  3.9142530976726864e-01  3.9445108476395990e-01  3.9365335152034453e-01  3.8865468863881725e-01  3.7978287070667144e-01  3.6806333688573362e-01  3.5437320174379350e-01  3.3888393021631358e-01  3.4459842084987369e-01  3.5318963853650054e-01  3.5977724749387968e-01  3.6465548374482915e-01  3.6751767482658770e-01  3.6783592964086925e-01  3.6525741896012853e-01  3.5973135198006356e-01  3.5158363100609868e-01  3.4140103899553942e-01  3.2955253778856813e-01  3.1616800000894341e-01  3.3288277727784032e-01  3.4108378296167452e-01  3.4663302567711396e-01  3.5017099086480263e-01  3.5183437647307653e-01  3.5128948029494389e-01  3.4807374566878391e-01  3.4207938870203802e-01  3.3375280932297757e-01  3.2387318394963216e-01  3.1290653090304521e-01  3.0054601382449037e-01  8.1421319158795880e-01  8.1023503481916215e-01  7.9843627230170855e-01  7.8535524413218694e-01  7.7337166697033188e-01  7.6333113418235987e-01  7.5558407835573560e-01  7.5001437955011130e-01  7.4624658920787335e-01  7.4394972462821851e-01  7.4274668053312953e-01  7.4172620574033554e-01  7.2015300259243920e-01  7.3209167212978254e-01  7.3476847549499769e-01  7.3238800729246001e-01  7.2779628030971899e-01  7.2270096258477712e-01  7.1794635469865309e-01  7.1363437507164029e-01  7.0944870061374077e-01  7.0500006226304679e-01  6.9980880278728563e-01  6.9282563613942250e-01  6.3730941977903177e-01  6.6150125782122471e-01  6.7439000823393513e-01  6.7969641061443964e-01  6.8064379169897382e-01  6.7961759394736521e-01  6.7786699116270666e-01  6.7553448874514954e-01  6.7206049733545048e-01  6.6674175844023109e-01  6.5884826970795307e-01  6.4682102436915001e-01  5.7299012921159864e-01  5.9922158878495480e-01  6.1799987184743443e-01  6.2892482283014295e-01  6.3417702974560297e-01  6.3640036599976768e-01  6.3718562320914107e-01  6.3673038222204048e-01  6.3421032794099275e-01  6.2854756899605868e-01  6.1903974269468653e-01  6.0509806059073801e-01  5.1885582557153598e-01  5.4336729503121317e-01  5.6488086557050643e-01  5.8016254803931655e-01  5.8933230439598561e-01  5.9448299451838094e-01  5.9732280966974338e-01  5.9817195262024414e-01  5.9607490384726947e-01  5.8964921735876141e-01  5.7832471631193705e-01  5.6251837358428780e-01  4.7349427123446186e-01  4.9448362416668878e-01  5.1572086477807122e-01  5.3371547646510664e-01  5.4639696322341869e-01  5.5428087287223526e-01  5.5869854923869589e-01  5.6002550030375398e-01  5.5726420533145482e-01  5.4891686677349361e-01  5.3487610355102888e-01  5.1685340042006112e-01  4.3627207581046690e-01  4.5352734619292578e-01  4.7218145788799620e-01  4.9034151299536177e-01  5.0507677537982631e-01  5.1495240117245122e-01  5.2025718812743982e-01  5.2110497086398877e-01  5.1641390485284611e-01  5.0497215706185705e-01  4.8791108795466270e-01  4.6828026665546973e-01  4.0599943459721366e-01  4.2007384921203456e-01  4.3511451275631541e-01  4.5077941223045986e-01  4.6487789214263597e-01  4.7493838284327117e-01  4.7988408661311666e-01  4.7916278001694390e-01  4.7178221195530379e-01  4.5774915681935802e-01  4.3969214780747967e-01  4.2043717223814597e-01  3.8172736697467785e-01  3.9323476174640692e-01  4.0464501763205329e-01  4.1620895435804639e-01  4.2676813675271513e-01  4.3420802124267144e-01  4.3687503423503293e-01  4.3391097164186254e-01  4.2510346837941404e-01  4.1174449736281549e-01  3.9598970633680131e-01  3.7891317065399477e-01  3.6272403739193537e-01  3.7231168657289